# vtk DataFile Version 3.1
this is an example file created for VisuSimple
ASCII
DATASET UNSTRUCTURED_GRID

POINTS 112 FLOAT
100	100	-173.2051
200	100	0
133.3333	0	0
66.6667	0	-115.4701
20	340	-34.641
40	340	0
200	100	0
100	100	-173.2051
-100	100	-173.2051
100	100	-173.2051
66.6667	0	-115.4701
-66.6667	0	-115.4701
-20	340	-34.641
20	340	-34.641
100	100	-173.2051
-100	100	-173.2051
-200	100	0
-100	100	-173.2051
-66.6667	0	-115.4701
-133.3333	0	0
-40	340	0
-20	340	-34.641
-100	100	-173.2051
-200	100	0
-100	100	173.2051
-200	100	0
-133.3333	0	0
-66.6667	0	115.4701
-20	340	34.641
-40	340	0
-200	100	0
-100	100	173.2051
100	100	173.2051
-100	100	173.2051
-66.6667	0	115.4701
66.6667	0	115.4701
20	340	34.641
-20	340	34.641
-100	100	173.2051
100	100	173.2051
200	100	0
100	100	173.2051
66.6667	0	115.4701
133.3333	0	0
40	340	0
20	340	34.641
100	100	173.2051
200	100	0
66.6667	0	-115.4701
133.3333	0	0
50	0	0
50	0	-57.735
-66.6667	0	-115.4701
66.6667	0	-115.4701
50	0	-57.735
-50	0	-57.735
-133.3333	0	0
-66.6667	0	-115.4701
-50	0	-57.735
-50	0	0
-66.6667	0	115.4701
-133.3333	0	0
-50	0	0
-50	0	57.735
66.6667	0	115.4701
-66.6667	0	115.4701
-50	0	57.735
50	0	57.735
133.3333	0	0
66.6667	0	115.4701
50	0	57.735
50	0	0
-50	0	-57.735
50	0	-57.735
50	0	0
-50	0	0
-50	0	0
50	0	0
50	0	57.735
-50	0	57.735
15	340	-17.3205
15	340	0
40	340	0
20	340	-34.641
-15	340	-17.3205
15	340	-17.3205
20	340	-34.641
-20	340	-34.641
-15	340	0
-15	340	-17.3205
-20	340	-34.641
-40	340	0
-15	340	17.3205
-15	340	0
-40	340	0
-20	340	34.641
15	340	17.3205
-15	340	17.3205
-20	340	34.641
20	340	34.641
15	340	0
15	340	17.3205
20	340	34.641
40	340	0
-15	340	0
15	340	0
15	340	-17.3205
-15	340	-17.3205
-15	340	17.3205
15	340	17.3205
15	340	0
-15	340	0

CELLS 28 140
4 0 1 2 3
4 4 5 6 7
4 8 9 10 11
4 12 13 14 15
4 16 17 18 19
4 20 21 22 23
4 24 25 26 27
4 28 29 30 31
4 32 33 34 35
4 36 37 38 39
4 40 41 42 43
4 44 45 46 47
4 48 49 50 51
4 52 53 54 55
4 56 57 58 59
4 60 61 62 63
4 64 65 66 67
4 68 69 70 71
4 72 73 74 75
4 76 77 78 79
4 80 81 82 83
4 84 85 86 87
4 88 89 90 91
4 92 93 94 95
4 96 97 98 99
4 100 101 102 103
4 104 105 106 107
4 108 109 110 111

CELL_TYPES 28
9 9 9 9 9 9 9 9 9 9 9 9 9 9 9 9 9 9 9 9 9 9 9 9 9 9 9 9

CELL_DATA 28
SCALARS Cell_Temperature FLOAT
LOOKUP_TABLE default
0
1
2
1
2
1
0
1
2
0
1
2
0
1
2
1
2
1
0
1
2
0
1
2
0
1
2
0
