# vtk DataFile Version 3.1
this is an example file created for VisuSimple
ASCII
DATASET UNSTRUCTURED_GRID

POINTS 24 FLOAT
50 -66.6667 50
50 -66.6667 -50
16.6667 0 -16.6667
16.6667 0 16.6667
50 -66.6667 -50
-50 -66.6667 -50
-16.6667 0 -16.6667
16.6667 0 -16.6667
-50 -66.6667 -50
-50 -66.6667 50
-16.6667 0 16.6667
-16.6667 0 -16.6667
-50 -66.6667 50
50 -66.6667 50
16.6667 0 16.6667
-16.6667 0 16.6667
16.6667 0 16.6667
16.6667 0 -16.6667
-16.6667 0 -16.6667
-16.6667 0 16.6667
50 -66.6667 50
-50 -66.6667 50
-50 -66.6667 -50
50 -66.6667 -50

CELLS 6 30
4 0 1 2 3
4 4 5 6 7
4 8 9 10 11
4 12 13 14 15
4 16 17 18 19
4 20 21 22 23

CELL_TYPES 6
9 9 9 9 9 9

CELL_DATA 6
SCALARS Cell_Temperature FLOAT
LOOKUP_TABLE default
0
1
2
0
1
2
