# vtk DataFile Version 3.1
this is an example file created for VisuSimple
ASCII
DATASET UNSTRUCTURED_GRID

POINTS 8 FLOAT
100. 100. 0.
200. 100. 0.
200. 200. 0.
100. 200. 0.
100. 100. -100.
200. 100. -100.
200. 200. -100.
100. 200. -100.

CELLS 6 30
4 0 1 2 3
4 5 4 7 6
4 3 2 6 7
4 4 5 1 0
4 1 5 6 2
4 4 0 3 7

CELL_TYPES 6
9 9 9 9 9 9

POINT_DATA 8
SCALARS HorizontalSpeed FLOAT
LOOKUP_TABLE default
0
0
0
1
2
1
0
0

SCALARS Temperature FLOAT
LOOKUP_TABLE default
1.1
1.2
2.1
2.5
3.5
1.3
1.4
1.6

CELL_DATA 6
SCALARS Cell_Temperature FLOAT
LOOKUP_TABLE default
0
1
2
1
2
1
